ITEM: TIMESTEP
0
ITEM: NUMBER OF ATOMS
200
ITEM: BOX BOUNDS pp pp pp
0.0000000000000000e+00 1.2660646995e+01
0.0000000000000000e+00 1.271117919e+01
0.0000000000000000e+00 2.798088081e+01
ITEM: ATOMS type xs ys zs
Ir   0.1250000000000000    0.2500000000000000    0.2946742943981749
Ir   0.1250000000000000    0.7500000000000001    0.2946742943981749
Ir   0.3750000000000000    0.2500000000000000    0.2946742943981749
Ir   0.3750000000000000    0.7500000000000001    0.2946742943981749
Ir   0.6249999999999999    0.2500000000000000    0.2946742943981749
Ir   0.6250000000000000    0.7500000000000001    0.2946742943981749
Ir   0.8749999999999999    0.2500000000000000    0.2946742943981749
Ir   0.8750000000000000    0.7500000000000001    0.2946742943981749
Ir   0.0000000000000000    0.0000000000000000    0.2946742944330698
Ir   0.0000000000000000    0.9999999999999999    0.2946742944330698
Ir   0.0000000000000000    0.5000000000000000    0.2946742944330698
Ir   0.2500000000000000    0.0000000000000000    0.2946742944330698
Ir   0.2500000000000000    0.9999999999999999    0.2946742944330698
Ir   0.2500000000000000    0.5000000000000000    0.2946742944330698
Ir   0.5000000000000000    0.0000000000000000    0.2946742944330698
Ir   0.5000000000000000    0.9999999999999999    0.2946742944330698
Ir   0.4999999999999999    0.5000000000000000    0.2946742944330698
Ir   0.7500000000000000    0.0000000000000000    0.2946742944330698
Ir   0.7500000000000000    0.9999999999999999    0.2946742944330698
Ir   0.7500000000000000    0.5000000000000000    0.2946742944330698
Ir   0.1250000000000000    0.0000000000000000    0.4082467972556237
Ir   0.1250000000000000    0.5000000000000000    0.4082467972556237
Ir   0.3750000000000000    0.0000000000000000    0.4082467972556237
Ir   0.3750000000000000    0.5000000000000000    0.4082467972556237
Ir   0.6250000000000000    0.0000000000000000    0.4082467972556237
Ir   0.6250000000000001    0.5000000000000000    0.4082467972556237
Ir   0.8750000000000000    0.0000000000000000    0.4082467972556237
Ir   0.8750000000000001    0.5000000000000000    0.4082467972556237
Ir   0.0000000000000000    0.2500000000000000    0.4082467972439303
Ir   0.0000000000000000    0.7500000000000001    0.4082467972439303
Ir   0.2500000000000000    0.2500000000000000    0.4082467972439303
Ir   0.2500000000000000    0.7500000000000001    0.4082467972439303
Ir   0.5000000000000000    0.2500000000000000    0.4082467972439303
Ir   0.5000000000000000    0.7500000000000001    0.4082467972439303
Ir   0.7499999999999999    0.2500000000000000    0.4082467972439303
Ir   0.7500000000000000    0.7500000000000001    0.4082467972439303
Ir   0.1250000000000000    0.2499999999999999    0.5218193000664844
Ir   0.1250000000000000    0.7500000000000001    0.5218193000664844
Ir   0.3750000000000000    0.2499999999999999    0.5218193000664844
Ir   0.3750000000000000    0.7500000000000001    0.5218193000664844
Ir   0.6249999999999999    0.2499999999999999    0.5218193000664844
Ir   0.6250000000000000    0.7500000000000001    0.5218193000664844
Ir   0.8749999999999999    0.2499999999999999    0.5218193000664844
Ir   0.8750000000000000    0.7500000000000001    0.5218193000664844
Ir   0.0000000000000000    0.0000000000000000    0.5218193001013791
Ir   0.0000000000000000    0.5000000000000000    0.5218193001013791
Ir   0.2500000000000000    0.0000000000000000    0.5218193001013791
Ir   0.2500000000000000    0.5000000000000000    0.5218193001013791
Ir   0.5000000000000000    0.0000000000000000    0.5218193001013791
Ir   0.4999999999999999    0.5000000000000000    0.5218193001013791
Ir   0.7500000000000000    0.0000000000000000    0.5218193001013791
Ir   0.7500000000000000    0.5000000000000000    0.5218193001013792
Ir   0.1250000000000000    0.4999999999999999    0.6353918028773449
Ir   0.1250000000000000    0.9999999999999999    0.6353918028773449
Ir   0.1250000000000000    0.0000000000000000    0.6353918028773449
Ir   0.3750000000000000    0.4999999999999999    0.6353918028773449
Ir   0.3750000000000001    0.9999999999999999    0.6353918028773449
Ir   0.3750000000000001    0.0000000000000000    0.6353918028773449
Ir   0.6250000000000000    0.4999999999999999    0.6353918028773449
Ir   0.6249999999999999    0.9999999999999999    0.6353918028773449
Ir   0.6249999999999999    0.0000000000000000    0.6353918028773449
Ir   0.8750000000000001    0.4999999999999999    0.6353918028773449
Ir   0.8750000000000000    0.9999999999999999    0.6353918028773449
Ir   0.8750000000000000    0.0000000000000000    0.6353918028773449
Ir   0.0000000000000000    0.2499999999999999    0.6353918029122396
Ir   0.0000000000000000    0.7500000000000001    0.6353918029122396
Ir   0.2500000000000000    0.2499999999999999    0.6353918029122396
Ir   0.2500000000000000    0.7500000000000001    0.6353918029122396
Ir   0.5000000000000000    0.2499999999999999    0.6353918029122396
Ir   0.5000000000000000    0.7500000000000001    0.6353918029122396
Ir   0.7499999999999999    0.2499999999999999    0.6353918029122396
Ir   0.7500000000000000    0.7500000000000001    0.6353918029122396
O   0.0000000000000000    0.0000000000000000    0.3646081971369988
O   0.0000000000000000    0.5000000000000000    0.3646081971369988
O   0.2500000000000000    0.0000000000000000    0.3646081971369988
O   0.2500000000000000    0.5000000000000000    0.3646081971369988
O   0.5000000000000000    0.0000000000000000    0.3646081971369988
O   0.4999999999999999    0.5000000000000000    0.3646081971369988
O   0.7500000000000000    0.0000000000000000    0.3646081971369988
O   0.7500000000000000    0.5000000000000000    0.3646081971369988
O   0.1250000000000000    0.0960589029942160    0.2946742944125187
O   0.1250000000000000    0.5960589029942160    0.2946742944125187
O   0.3749999999999999    0.0960589029942160    0.2946742944125187
O   0.3750000000000000    0.5960589029942160    0.2946742944125187
O   0.6250000000000000    0.0960589029942160    0.2946742944125187
O   0.6250000000000000    0.5960589029942160    0.2946742944125186
O   0.8750000000000000    0.0960589029942160    0.2946742944125187
O   0.8750000000000000    0.5960589029942160    0.2946742944125187
O   0.0000000000000000    0.2500000000000000    0.3383128945400012
O   0.0000000000000000    0.7500000000000001    0.3383128945400012
O   0.2500000000000000    0.2500000000000000    0.3383128945400012
O   0.2500000000000000    0.7500000000000001    0.3383128945400012
O   0.5000000000000000    0.2500000000000000    0.3383128945400012
O   0.5000000000000000    0.7500000000000001    0.3383128945400012
O   0.7499999999999999    0.2500000000000000    0.3383128945400012
O   0.7500000000000000    0.7500000000000001    0.3383128945400012
O   0.1250000000000000    0.4039410970057841    0.2946742943838312
O   0.1250000000000000    0.9039410970057841    0.2946742943838312
O   0.3749999999999999    0.4039410970057841    0.2946742943838312
O   0.3749999999999999    0.9039410970057841    0.2946742943838312
O   0.6250000000000000    0.4039410970057841    0.2946742943838312
O   0.6250000000000000    0.9039410970057841    0.2946742943838312
O   0.8749999999999999    0.4039410970057841    0.2946742943838312
O   0.8750000000000000    0.9039410970057841    0.2946742943838312
O   0.0000000000000000    0.2500000000000000    0.4781806999478594
O   0.0000000000000000    0.7500000000000001    0.4781806999478594
O   0.2500000000000000    0.2500000000000000    0.4781806999478594
O   0.2500000000000000    0.7500000000000001    0.4781806999478593
O   0.5000000000000000    0.2500000000000000    0.4781806999478594
O   0.5000000000000000    0.7500000000000001    0.4781806999478593
O   0.7499999999999999    0.2500000000000000    0.4781806999478594
O   0.7500000000000000    0.7500000000000001    0.4781806999478594
O   0.1250000000000000    0.3460589029942160    0.4082467972233792
O   0.1250000000000000    0.8460589029942160    0.4082467972233792
O   0.3750000000000001    0.3460589029942160    0.4082467972233792
O   0.3750000000000001    0.8460589029942160    0.4082467972233791
O   0.6250000000000000    0.3460589029942160    0.4082467972233792
O   0.6250000000000000    0.8460589029942160    0.4082467972233791
O   0.8750000000000001    0.3460589029942160    0.4082467972233791
O   0.8750000000000000    0.8460589029942160    0.4082467972233792
O   0.0000000000000000    0.0000000000000000    0.4518853973974500
O   0.0000000000000000    0.5000000000000000    0.4518853973974500
O   0.2500000000000000    0.0000000000000000    0.4518853973974500
O   0.2500000000000000    0.5000000000000000    0.4518853973974500
O   0.5000000000000000    0.0000000000000000    0.4518853973974500
O   0.4999999999999999    0.5000000000000000    0.4518853973974500
O   0.7500000000000000    0.0000000000000000    0.4518853973974500
O   0.7500000000000000    0.5000000000000000    0.4518853973974500
O   0.1250000000000000    0.1539410970057840    0.4082467972412801
O   0.1250000000000000    0.6539410970057841    0.4082467972412801
O   0.3750000000000000    0.1539410970057840    0.4082467972412801
O   0.3750000000000001    0.6539410970057841    0.4082467972412800
O   0.6250000000000000    0.1539410970057840    0.4082467972412801
O   0.6250000000000000    0.6539410970057841    0.4082467972412800
O   0.8750000000000000    0.1539410970057840    0.4082467972412800
O   0.8750000000000000    0.6539410970057841    0.4082467972412801
O   0.0000000000000000    0.0000000000000000    0.5917532028053083
O   0.0000000000000000    0.5000000000000000    0.5917532028053083
O   0.2500000000000000    0.0000000000000000    0.5917532028053083
O   0.2500000000000000    0.5000000000000000    0.5917532028053083
O   0.5000000000000000    0.0000000000000000    0.5917532028053083
O   0.4999999999999999    0.5000000000000000    0.5917532028053083
O   0.7500000000000000    0.0000000000000000    0.5917532028053083
O   0.7500000000000000    0.5000000000000000    0.5917532028053083
O   0.1250000000000000    0.0960589029942160    0.5218193000808280
O   0.1250000000000000    0.5960589029942160    0.5218193000808280
O   0.3749999999999999    0.0960589029942160    0.5218193000808280
O   0.3750000000000000    0.5960589029942160    0.5218193000808280
O   0.6250000000000000    0.0960589029942160    0.5218193000808280
O   0.6250000000000000    0.5960589029942160    0.5218193000808280
O   0.8750000000000000    0.0960589029942160    0.5218193000808280
O   0.8750000000000000    0.5960589029942160    0.5218193000808281
O   0.0000000000000000    0.2500000000000000    0.5654579002083105
O   0.0000000000000000    0.7500000000000001    0.5654579002083105
O   0.2500000000000000    0.2500000000000000    0.5654579002083105
O   0.2500000000000000    0.7500000000000001    0.5654579002083105
O   0.5000000000000000    0.2500000000000000    0.5654579002083105
O   0.5000000000000000    0.7500000000000001    0.5654579002083105
O   0.7499999999999999    0.2500000000000000    0.5654579002083105
O   0.7500000000000000    0.7500000000000001    0.5654579002083105
O   0.1250000000000000    0.4039410970057841    0.5218193000521404
O   0.1250000000000000    0.9039410970057841    0.5218193000521404
O   0.3749999999999999    0.4039410970057841    0.5218193000521404
O   0.3749999999999999    0.9039410970057841    0.5218193000521404
O   0.6250000000000000    0.4039410970057841    0.5218193000521404
O   0.6250000000000000    0.9039410970057841    0.5218193000521404
O   0.8749999999999999    0.4039410970057841    0.5218193000521404
O   0.8750000000000000    0.9039410970057841    0.5218193000521405
O   0.0000000000000000    0.2499999999999999    0.7053257056161687
O   0.0000000000000000    0.7500000000000001    0.7053257056161687
O   0.2500000000000000    0.2499999999999999    0.7053257056161687
O   0.2500000000000000    0.7500000000000001    0.7053257056161687
O   0.5000000000000000    0.2499999999999999    0.7053257056161687
O   0.5000000000000000    0.7500000000000001    0.7053257056161687
O   0.7499999999999999    0.2499999999999999    0.7053257056161687
O   0.7500000000000000    0.7500000000000001    0.7053257056161687
O   0.1250000000000000    0.3460589029942160    0.6353918028916884
O   0.1250000000000000    0.8460589029942160    0.6353918028916884
O   0.3750000000000001    0.3460589029942160    0.6353918028916884
O   0.3750000000000001    0.8460589029942160    0.6353918028916884
O   0.6250000000000000    0.3460589029942160    0.6353918028916884
O   0.6250000000000000    0.8460589029942160    0.6353918028916884
O   0.8750000000000001    0.3460589029942160    0.6353918028916884
O   0.8750000000000000    0.8460589029942160    0.6353918028916884
O   0.0000000000000000    0.0000000000000000    0.6790304030657592
O   0.0000000000000000    0.5000000000000000    0.6790304030657592
O   0.2500000000000000    0.0000000000000000    0.6790304030657592
O   0.2500000000000000    0.5000000000000000    0.6790304030657592
O   0.5000000000000000    0.0000000000000000    0.6790304030657592
O   0.4999999999999999    0.5000000000000000    0.6790304030657592
O   0.7500000000000000    0.0000000000000000    0.6790304030657592
O   0.7500000000000000    0.5000000000000000    0.6790304030657592
O   0.1250000000000000    0.1539410970057840    0.6353918029095892
O   0.1250000000000000    0.6539410970057840    0.6353918029095892
O   0.3750000000000000    0.1539410970057840    0.6353918029095892
O   0.3750000000000001    0.6539410970057840    0.6353918029095892
O   0.6250000000000000    0.1539410970057840    0.6353918029095892
O   0.6250000000000000    0.6539410970057840    0.6353918029095892
O   0.8750000000000000    0.1539410970057840    0.6353918029095892
O   0.8750000000000000    0.6539410970057840    0.6353918029095892
